Title                                                                   
FOpt      RMP2-FC                                                     CC-pVTZ             
Number of atoms                            I                3
Info1-9                                    I   N=           9
          15          12           0           0           0         100
           2           2           1
Full Title                                 C   N=           1
Title       
Route                                      C   N=           8
#p MP2/cc-pvtz Opt=(tight,maxcycles=600) scf=(maxcycle=500) 
density=current guess=save          
Charge                                     I                0
Multiplicity                               I                1
Number of electrons                        I               22
Number of alpha electrons                  I               11
Number of beta electrons                   I               11
Number of basis functions                  I               90
Number of independent functions            I               90
Number of point charges in /Mol/           I                0
Number of translation vectors              I                0
Atomic numbers                             I   N=           3
           9           4           9
Nuclear charges                            R   N=           3
  9.00000000E+00  4.00000000E+00  9.00000000E+00
Current cartesian coordinates              R   N=           9
  0.00000000E+00 -0.00000000E+00 -2.61866071E+00  0.00000000E+00 -0.00000000E+00
 -0.00000000E+00  3.20693445E-16  0.00000000E+00  2.61866071E+00
Number of symbols in /Mol/                 I                0
Int Atom Types                             I   N=           3
           0           0           0
Force Field                                I                0
Atom Types                                 C   N=           3
                                    
MM charges                                 R   N=           3
  0.00000000E+00  0.00000000E+00  0.00000000E+00
Integer atomic weights                     I   N=           3
          19           9          19
Real atomic weights                        R   N=           3
  1.89984032E+01  9.01218250E+00  1.89984032E+01
Atom fragment info                         I   N=           3
           0           0           0
Atom residue num                           I   N=           3
           0           0           0
Nuclear spins                              I   N=           3
           1           3           1
Nuclear ZEff                               R   N=           3
 -6.75000000E+00 -2.00000000E+00 -6.75000000E+00
Nuclear ZNuc                               R   N=           3
  9.00000000E+00  4.00000000E+00  9.00000000E+00
Nuclear QMom                               R   N=           3
  0.00000000E+00  5.28800000E+00  0.00000000E+00
Nuclear GFac                               R   N=           3
  2.62886700E+00 -1.17790000E+00  2.62886700E+00
MicOpt                                     I   N=           3
          -1          -1          -1
Number of residues                         I                0
Number of secondary structures             I                0
Redundant internal dimensions              I   N=           4
           4           2           2           0
Redundant internal coordinate indices      I   N=          16
           1           2           0           0           2           3
           0           0           1           2           3          -3
           1           2           3          -7
Redundant internal coordinates             R   N=           4
  2.61866071E+00  2.61866071E+00  3.14159265E+00  3.14159265E+00
ZRed-IntVec                                I   N=           4
           0           0           0           0
ZRed-FPVec                                 R   N=           4
  0.00000000E+00  0.00000000E+00  0.00000000E+00  0.00000000E+00
ZRed-Constraint1                           R   N=           4
  2.60684926E+00  2.60684964E+00  3.14159265E+00  3.14159265E+00
ZRed-Constraint2                           R   N=           4
  0.00000000E+00  0.00000000E+00  0.00000000E+00  0.00000000E+00
SymInf integers                            I   N=          26
           2           8           1           1           1          -1
           1          -1          -1          -1           1           1
          -1          -1          -1           1           1           1
          -1           1           1           1          -1          -1
          -1          -1
RotTr to input orientation                 R   N=          12
  1.00000000E+00  0.00000000E+00  0.00000000E+00 -0.00000000E+00 -1.00000000E+00
 -0.00000000E+00 -0.00000000E+00 -0.00000000E+00 -1.00000000E+00  1.31327368E-16
  0.00000000E+00 -3.43586589E-09
Number of contracted shells                I               30
Number of primitive shells                 I               71
Pure/Cartesian d shells                    I                0
Pure/Cartesian f shells                    I                0
Highest angular momentum                   I                3
Largest degree of contraction              I                8
Shell types                                I   N=          30
           0           0           0           0           1           1
           1          -2          -2          -3           0           0
           0           0           1           1           1          -2
          -2          -3           0           0           0           0
           1           1           1          -2          -2          -3
Number of primitives per shell             I   N=          30
           7           6           1           1           3           1
           1           1           1           1           8           7
           1           1           3           1           1           1
           1           1           7           6           1           1
           3           1           1           1           1           1
Shell to atom map                          I   N=          30
           1           1           1           1           1           1
           1           1           1           1           2           2
           2           2           2           2           2           2
           2           2           3           3           3           3
           3           3           3           3           3           3
Primitive exponents                        R   N=          71
  1.95000000E+04  2.92300000E+03  6.64500000E+02  1.87500000E+02  6.06200000E+01
  2.14200000E+01  7.95000000E+00  6.64500000E+02  1.87500000E+02  6.06200000E+01
  2.14200000E+01  7.95000000E+00  8.81500000E-01  2.25700000E+00  3.04100000E-01
  4.38800000E+01  9.92600000E+00  2.93000000E+00  9.13200000E-01  2.67200000E-01
  3.10700000E+00  8.55000000E-01  1.91700000E+00  6.86300000E+03  1.03000000E+03
  2.34700000E+02  6.65600000E+01  2.16900000E+01  7.73400000E+00  2.91600000E+00
  1.13000000E+00  2.34700000E+02  6.65600000E+01  2.16900000E+01  7.73400000E+00
  2.91600000E+00  1.13000000E+00  1.10100000E-01  2.57700000E-01  4.40900000E-02
  7.43600000E+00  1.57700000E+00  4.35200000E-01  1.43800000E-01  4.99400000E-02
  3.48000000E-01  1.80300000E-01  3.25000000E-01  1.95000000E+04  2.92300000E+03
  6.64500000E+02  1.87500000E+02  6.06200000E+01  2.14200000E+01  7.95000000E+00
  6.64500000E+02  1.87500000E+02  6.06200000E+01  2.14200000E+01  7.95000000E+00
  8.81500000E-01  2.25700000E+00  3.04100000E-01  4.38800000E+01  9.92600000E+00
  2.93000000E+00  9.13200000E-01  2.67200000E-01  3.10700000E+00  8.55000000E-01
  1.91700000E+00
Contraction coefficients                   R   N=          71
  5.19002444E-04  4.01578135E-03  2.06774611E-02  8.08690170E-02  2.35807546E-01
  4.42582306E-01  3.56962867E-01 -3.73598087E-05 -1.27747230E-03 -1.08220140E-02
 -7.00482089E-02 -1.69746608E-01  1.07302661E+00  1.00000000E+00  1.00000000E+00
  4.19046207E-02  2.62697842E-01  7.97759373E-01  1.00000000E+00  1.00000000E+00
  1.00000000E+00  1.00000000E+00  1.00000000E+00  2.37848718E-04  1.84030029E-03
  9.52586691E-03  3.82531149E-02  1.20888615E-01  2.84286717E-01  4.30285259E-01
  2.67251709E-01 -2.26548446E-05 -1.65951284E-04 -2.30361069E-03 -1.23278348E-02
 -6.75540023E-02 -1.61168135E-01  1.06300400E+00  1.00000000E+00  1.00000000E+00
  3.65487780E-02  2.13975121E-01  8.44884103E-01  1.00000000E+00  1.00000000E+00
  1.00000000E+00  1.00000000E+00  1.00000000E+00  5.19002444E-04  4.01578135E-03
  2.06774611E-02  8.08690170E-02  2.35807546E-01  4.42582306E-01  3.56962867E-01
 -3.73598087E-05 -1.27747230E-03 -1.08220140E-02 -7.00482089E-02 -1.69746608E-01
  1.07302661E+00  1.00000000E+00  1.00000000E+00  4.19046207E-02  2.62697842E-01
  7.97759373E-01  1.00000000E+00  1.00000000E+00  1.00000000E+00  1.00000000E+00
  1.00000000E+00
Coordinates of each shell                  R   N=          90
  0.00000000E+00  0.00000000E+00 -2.61866071E+00  0.00000000E+00  0.00000000E+00
 -2.61866071E+00  0.00000000E+00  0.00000000E+00 -2.61866071E+00  0.00000000E+00
  0.00000000E+00 -2.61866071E+00  0.00000000E+00  0.00000000E+00 -2.61866071E+00
  0.00000000E+00  0.00000000E+00 -2.61866071E+00  0.00000000E+00  0.00000000E+00
 -2.61866071E+00  0.00000000E+00  0.00000000E+00 -2.61866071E+00  0.00000000E+00
  0.00000000E+00 -2.61866071E+00  0.00000000E+00  0.00000000E+00 -2.61866071E+00
  0.00000000E+00  0.00000000E+00  0.00000000E+00  0.00000000E+00  0.00000000E+00
  0.00000000E+00  0.00000000E+00  0.00000000E+00  0.00000000E+00  0.00000000E+00
  0.00000000E+00  0.00000000E+00  0.00000000E+00  0.00000000E+00  0.00000000E+00
  0.00000000E+00  0.00000000E+00  0.00000000E+00  0.00000000E+00  0.00000000E+00
  0.00000000E+00  0.00000000E+00  0.00000000E+00  0.00000000E+00  0.00000000E+00
  0.00000000E+00  0.00000000E+00  0.00000000E+00  0.00000000E+00  0.00000000E+00
  3.20693445E-16  0.00000000E+00  2.61866071E+00  3.20693445E-16  0.00000000E+00
  2.61866071E+00  3.20693445E-16  0.00000000E+00  2.61866071E+00  3.20693445E-16
  0.00000000E+00  2.61866071E+00  3.20693445E-16  0.00000000E+00  2.61866071E+00
  3.20693445E-16  0.00000000E+00  2.61866071E+00  3.20693445E-16  0.00000000E+00
  2.61866071E+00  3.20693445E-16  0.00000000E+00  2.61866071E+00  3.20693445E-16
  0.00000000E+00  2.61866071E+00  3.20693445E-16  0.00000000E+00  2.61866071E+00
Num ILSW                                   I              100
ILSW                                       I   N=         100
           0           0           0           1           2           0
           0           0           0           0           0          -1
           5           0           0           0           2           0
           0           0           0           0           1           0
           1           0           0           0           0           0
           0           0      100000           0          -1           0
           0           0           0           0           0           0
           0           0           0           1           0           0
           0 -2000000000           1           0           0           0
           0           0           4          52           0           0
           0           0           0           0           0           0
           0           0           0           3           0           1
           0           0           0           0           0           0
           0           0           0           0           0           0
           0           0           0           0           0           0
           0           0           0           0           0           0
           0           0           0           0
Num RLSW                                   I               52
RLSW                                       R   N=          52
  1.00000000E+00  1.00000000E+00  1.00000000E+00  1.00000000E+00  1.00000000E+00
  0.00000000E+00  0.00000000E+00  1.00000000E+00  0.00000000E+00  0.00000000E+00
  0.00000000E+00  0.00000000E+00  1.00000000E+00  0.00000000E+00  0.00000000E+00
  0.00000000E+00  0.00000000E+00  1.00000000E+00  0.00000000E+00  0.00000000E+00
  0.00000000E+00  0.00000000E+00  1.00000000E+00  0.00000000E+00  0.00000000E+00
  0.00000000E+00  0.00000000E+00  1.00000000E+00  0.00000000E+00  0.00000000E+00
  0.00000000E+00  0.00000000E+00  1.00000000E+00  0.00000000E+00  0.00000000E+00
  0.00000000E+00  0.00000000E+00  0.00000000E+00  1.00000000E+00  1.00000000E+00
  0.00000000E+00  1.00000000E+00  0.00000000E+00  0.00000000E+00  0.00000000E+00
  0.00000000E+00  0.00000000E+00  0.00000000E+00  0.00000000E+00  0.00000000E+00
  0.00000000E+00  0.00000000E+00
MxBond                                     I                2
NBond                                      I   N=           3
           1           2           1
IBond                                      I   N=           6
           2           0           1           3           2           0
RBond                                      R   N=           6
  1.00000000E+00  0.00000000E+00  1.00000000E+00  1.00000000E+00  1.00000000E+00
  0.00000000E+00
Virial Ratio                               R      2.000628566412501E+00
SCF Energy                                 R     -2.137646117944330E+02
MP2 Energy                                 R     -2.143196536751673E+02
Total Energy                               R     -2.143196536751673E+02
Post-SCF wavefunction norm                 R      1.051947105413107E+00
RMS Force                                  R      1.900863635982858E-07
RMS Density                                R      3.046887947833754E-09
Job Status                                 I                1
Nuclear derivative order                   I                1
External E-field                           R   N=          35
  0.00000000E+00  0.00000000E+00  0.00000000E+00  0.00000000E+00  0.00000000E+00
  0.00000000E+00  0.00000000E+00  0.00000000E+00  0.00000000E+00  0.00000000E+00
  0.00000000E+00  0.00000000E+00  0.00000000E+00  0.00000000E+00  0.00000000E+00
  0.00000000E+00  0.00000000E+00  0.00000000E+00  0.00000000E+00  0.00000000E+00
  0.00000000E+00  0.00000000E+00  0.00000000E+00  0.00000000E+00  0.00000000E+00
  0.00000000E+00  0.00000000E+00  0.00000000E+00  0.00000000E+00  0.00000000E+00
  0.00000000E+00  0.00000000E+00  0.00000000E+00  0.00000000E+00  0.00000000E+00
IOpCl                                      I                0
IROHF                                      I                0
Alpha Orbital Energies                     R   N=          90
 -2.62711263E+01 -2.62711225E+01 -4.71652295E+00 -1.56328186E+00 -1.55507527E+00
 -6.99310671E-01 -6.85301447E-01 -6.50098944E-01 -6.50098944E-01 -6.27481039E-01
 -6.27481039E-01  6.24632209E-02  1.03999356E-01  1.03999356E-01  1.44410940E-01
  2.84995750E-01  2.84995750E-01  3.31253441E-01  4.48475904E-01  4.48475904E-01
  5.32737047E-01  6.45615584E-01  6.45615584E-01  7.45071470E-01  9.77369843E-01
  9.77369843E-01  1.00618741E+00  1.03653594E+00  1.04149356E+00  1.04149356E+00
  1.09043635E+00  1.09755939E+00  1.09755939E+00  1.22061567E+00  1.22061567E+00
  1.27196684E+00  1.27196684E+00  1.35294190E+00  1.35294190E+00  1.45353816E+00
  1.50450459E+00  1.50450459E+00  1.72528920E+00  1.72528920E+00  1.77401404E+00
  2.10156018E+00  2.34521851E+00  2.34521851E+00  2.38311578E+00  2.62142225E+00
  2.62142225E+00  2.97144400E+00  2.97144400E+00  3.09177298E+00  3.16592870E+00
  3.16592870E+00  3.20764532E+00  3.45566163E+00  5.34516120E+00  5.34516120E+00
  5.37958311E+00  5.37958311E+00  5.50236734E+00  5.95005871E+00  7.40146467E+00
  7.40183664E+00  7.40183664E+00  7.41516599E+00  7.41516599E+00  7.41561511E+00
  7.41561511E+00  7.42036406E+00  7.42036406E+00  7.47300986E+00  7.47300986E+00
  7.50874775E+00  7.50874775E+00  7.53326325E+00  8.91777319E+00  8.91777319E+00
  9.05903926E+00  9.05903926E+00  9.32223719E+00  9.32223719E+00  9.38108567E+00
  9.44400650E+00  9.47579643E+00  9.47579643E+00  1.27401077E+01  1.28854952E+01
Alpha MO coefficients                      R   N=        8100
  6.90461830E-01 -6.25886789E-03  3.09268894E-02  3.41614442E-03  0.00000000E+00
  0.00000000E+00  5.85495919E-04  0.00000000E+00  0.00000000E+00 -5.16795776E-04
  0.00000000E+00  0.00000000E+00  9.19382733E-04 -1.25019604E-05  0.00000000E+00
  0.00000000E+00 -8.29475734E-17  0.00000000E+00  7.55565855E-05  0.00000000E+00
  0.00000000E+00  2.09609912E-17  0.00000000E+00  4.37397390E-06  0.00000000E+00
  0.00000000E+00 -4.67770029E-18  0.00000000E+00  0.00000000E+00  0.00000000E+00
  0.00000000E+00  0.00000000E+00  0.00000000E+00  0.00000000E+00  0.00000000E+00
  0.00000000E+00  1.36234216E-04  0.00000000E+00  0.00000000E+00  1.42459273E-03
  0.00000000E+00  0.00000000E+00 -1.57271000E-04  0.00000000E+00  0.00000000E+00
  0.00000000E+00  0.00000000E+00  0.00000000E+00  0.00000000E+00  0.00000000E+00
  0.00000000E+00  0.00000000E+00  0.00000000E+00 -4.97565178E-04  0.00000000E+00
  0.00000000E+00 -1.36641270E-16  0.00000000E+00  0.00000000E+00  0.00000000E+00
 -6.90461830E-01  6.25886789E-03 -3.09268894E-02 -3.41614442E-03  0.00000000E+00
  0.00000000E+00  5.85495919E-04  0.00000000E+00  0.00000000E+00 -5.16795776E-04
  0.00000000E+00  0.00000000E+00  9.19382733E-04  1.25019604E-05  0.00000000E+00
  0.00000000E+00  8.29475734E-17  0.00000000E+00 -7.55565855E-05  0.00000000E+00
  0.00000000E+00 -2.09609912E-17  0.00000000E+00  4.37397390E-06  0.00000000E+00
  0.00000000E+00 -4.67770029E-18  0.00000000E+00  0.00000000E+00  0.00000000E+00
  6.90476100E-01 -6.18784936E-03  3.09153013E-02  4.30886954E-03  0.00000000E+00
  0.00000000E+00  5.63050061E-04  0.00000000E+00  0.00000000E+00 -3.99435184E-04
  0.00000000E+00  0.00000000E+00  7.60864922E-04  9.14703749E-06  0.00000000E+00
  0.00000000E+00 -1.10467855E-17  0.00000000E+00  7.58670013E-07  0.00000000E+00
  0.00000000E+00 -4.51125288E-17  0.00000000E+00  6.61721963E-06  0.00000000E+00
  0.00000000E+00 -1.52371251E-16  0.00000000E+00  0.00000000E+00  0.00000000E+00
 -5.13320666E-04 -2.41914287E-03 -4.11545488E-04  2.23164153E-04  0.00000000E+00
  0.00000000E+00  0.00000000E+00  0.00000000E+00  0.00000000E+00  0.00000000E+00
  0.00000000E+00  0.00000000E+00  0.00000000E+00  6.29752782E-04  0.00000000E+00
  0.00000000E+00  2.22540286E-17  0.00000000E+00 -1.74756530E-03  0.00000000E+00
  0.00000000E+00 -3.60257398E-17  0.00000000E+00  0.00000000E+00  0.00000000E+00
  0.00000000E+00  0.00000000E+00  0.00000000E+00  0.00000000E+00  0.00000000E+00
  6.90476100E-01 -6.18784936E-03  3.09153013E-02  4.30886954E-03  0.00000000E+00
  0.00000000E+00 -5.63050061E-04  0.00000000E+00  0.00000000E+00  3.99435184E-04
  0.00000000E+00  0.00000000E+00 -7.60864922E-04  9.14703749E-06  0.00000000E+00
  0.00000000E+00 -1.10467855E-17  0.00000000E+00  7.58670013E-07  0.00000000E+00
  0.00000000E+00 -4.51125288E-17  0.00000000E+00 -6.61721963E-06  0.00000000E+00
  0.00000000E+00  1.52371251E-16  0.00000000E+00  0.00000000E+00  0.00000000E+00
 -1.30397348E-03  3.53907693E-03  5.32593919E-04 -2.11103675E-03  0.00000000E+00
  0.00000000E+00  1.81911474E-03  0.00000000E+00  0.00000000E+00  2.68331421E-03
  0.00000000E+00  0.00000000E+00 -9.14830019E-04  3.25796218E-04  0.00000000E+00
  0.00000000E+00  3.48320476E-17  0.00000000E+00  9.02291574E-04  0.00000000E+00
  0.00000000E+00 -2.53493604E-16  0.00000000E+00  3.29943115E-04  0.00000000E+00
  0.00000000E+00  3.49134163E-17  0.00000000E+00  0.00000000E+00  0.00000000E+00
  9.89606559E-01 -5.44963290E-03  2.44635551E-02  1.56351855E-03  0.00000000E+00
  0.00000000E+00  0.00000000E+00  0.00000000E+00  0.00000000E+00  0.00000000E+00
  0.00000000E+00  0.00000000E+00  0.00000000E+00  1.84971971E-03  0.00000000E+00
  0.00000000E+00  1.47696444E-17  0.00000000E+00  1.25931404E-03  0.00000000E+00
  0.00000000E+00  1.05611768E-16  0.00000000E+00  0.00000000E+00  0.00000000E+00
  0.00000000E+00  0.00000000E+00  0.00000000E+00  0.00000000E+00  0.00000000E+00
 -1.30397348E-03  3.53907693E-03  5.32593919E-04 -2.11103675E-03  0.00000000E+00
  0.00000000E+00 -1.81911474E-03  0.00000000E+00  0.00000000E+00 -2.68331421E-03
  0.00000000E+00  0.00000000E+00  9.14830019E-04  3.25796218E-04  0.00000000E+00
  0.00000000E+00  3.48320476E-17  0.00000000E+00  9.02291574E-04  0.00000000E+00
  0.00000000E+00 -2.53493604E-16  0.00000000E+00 -3.29943115E-04  0.00000000E+00
  0.00000000E+00 -3.49134163E-17  0.00000000E+00  0.00000000E+00  0.00000000E+00
 -1.55128234E-01  3.76228559E-01  1.11157836E-01  2.38847650E-01  0.00000000E+00
  0.00000000E+00  1.80296725E-02  0.00000000E+00  0.00000000E+00  2.67131176E-02
  0.00000000E+00  0.00000000E+00  9.56525231E-03  9.22611190E-04  0.00000000E+00
  0.00000000E+00  1.15485048E-16  0.00000000E+00  5.15808281E-03  0.00000000E+00
  0.00000000E+00 -9.80015165E-18  0.00000000E+00  1.12156696E-03  0.00000000E+00
  0.00000000E+00 -8.52835661E-17  0.00000000E+00  0.00000000E+00  0.00000000E+00
  0.00000000E+00  0.00000000E+00  0.00000000E+00  0.00000000E+00  0.00000000E+00
  0.00000000E+00 -7.91413740E-02  0.00000000E+00  0.00000000E+00 -2.94285413E-02
  0.00000000E+00  0.00000000E+00 -3.35206156E-03  0.00000000E+00  0.00000000E+00
  0.00000000E+00  0.00000000E+00  0.00000000E+00  0.00000000E+00  0.00000000E+00
  0.00000000E+00  0.00000000E+00  0.00000000E+00 -1.33346066E-02  0.00000000E+00
  0.00000000E+00  3.06599063E-17  0.00000000E+00  0.00000000E+00  0.00000000E+00
  1.55128234E-01 -3.76228559E-01 -1.11157836E-01 -2.38847650E-01  0.00000000E+00
  0.00000000E+00  1.80296725E-02  0.00000000E+00  0.00000000E+00  2.67131176E-02
  0.00000000E+00  0.00000000E+00  9.56525231E-03 -9.22611190E-04  0.00000000E+00
  0.00000000E+00 -1.15485048E-16  0.00000000E+00 -5.15808281E-03  0.00000000E+00
  0.00000000E+00  9.80015165E-18  0.00000000E+00  1.12156696E-03  0.00000000E+00
  0.00000000E+00 -8.52835661E-17  0.00000000E+00  0.00000000E+00  0.00000000E+00
 -1.55090800E-01  3.81241257E-01  1.11585356E-01  2.21601710E-01  0.00000000E+00
  0.00000000E+00  1.52937584E-02  0.00000000E+00  0.00000000E+00  2.42563195E-02
  0.00000000E+00  0.00000000E+00 -1.48829669E-03  3.90588677E-04  0.00000000E+00
  0.00000000E+00 -3.29534147E-16  0.00000000E+00  6.35088062E-03  0.00000000E+00
  0.00000000E+00  2.37009970E-16  0.00000000E+00  1.40229195E-03  0.00000000E+00
  0.00000000E+00 -1.15744907E-16  0.00000000E+00  0.00000000E+00  0.00000000E+00
 -8.30388371E-02  7.50529455E-02  4.74532863E-02 -1.69760011E-02  0.00000000E+00
  0.00000000E+00  0.00000000E+00  0.00000000E+00  0.00000000E+00  0.00000000E+00
  0.00000000E+00  0.00000000E+00  0.00000000E+00  4.10761573E-02  0.00000000E+00
  0.00000000E+00 -1.70191576E-16  0.00000000E+00  1.00881809E-02  0.00000000E+00
  0.00000000E+00  1.63474747E-16  0.00000000E+00  0.00000000E+00  0.00000000E+00
  0.00000000E+00  0.00000000E+00  0.00000000E+00  0.00000000E+00  0.00000000E+00
 -1.55090800E-01  3.81241257E-01  1.11585356E-01  2.21601710E-01  0.00000000E+00
  0.00000000E+00 -1.52937584E-02  0.00000000E+00  0.00000000E+00 -2.42563195E-02
  0.00000000E+00  0.00000000E+00  1.48829669E-03  3.90588677E-04  0.00000000E+00
  0.00000000E+00 -3.29534147E-16  0.00000000E+00  6.35088062E-03  0.00000000E+00
  0.00000000E+00  2.37009970E-16  0.00000000E+00 -1.40229195E-03  0.00000000E+00
  0.00000000E+00  1.15744907E-16  0.00000000E+00  0.00000000E+00  0.00000000E+00
  2.33009499E-02 -5.98772975E-02 -2.12941470E-02 -1.06713902E-01  0.00000000E+00
  0.00000000E+00  2.52362994E-01  0.00000000E+00  0.00000000E+00  3.09378486E-01
  0.00000000E+00  0.00000000E+00  2.02910111E-01  3.13462041E-03  0.00000000E+00
  0.00000000E+00  1.28294652E-16  0.00000000E+00  1.17284786E-02  0.00000000E+00
  0.00000000E+00 -7.21999701E-17  0.00000000E+00  2.29356036E-03  0.00000000E+00
  0.00000000E+00  6.79791021E-17  0.00000000E+00  0.00000000E+00  0.00000000E+00
  0.00000000E+00  0.00000000E+00  0.00000000E+00  0.00000000E+00  0.00000000E+00
  0.00000000E+00 -1.95158732E-01  0.00000000E+00  0.00000000E+00 -7.65745723E-02
  0.00000000E+00  0.00000000E+00  3.40593249E-02  0.00000000E+00  0.00000000E+00
  0.00000000E+00  0.00000000E+00  0.00000000E+00  0.00000000E+00  0.00000000E+00
  0.00000000E+00  0.00000000E+00  0.00000000E+00 -2.10756868E-02  0.00000000E+00
  0.00000000E+00  2.48985880E-16  0.00000000E+00  0.00000000E+00  0.00000000E+00
 -2.33009499E-02  5.98772975E-02  2.12941470E-02  1.06713902E-01  0.00000000E+00
  0.00000000E+00  2.52362994E-01  0.00000000E+00  0.00000000E+00  3.09378486E-01
  0.00000000E+00  0.00000000E+00  2.02910111E-01 -3.13462041E-03  0.00000000E+00
  0.00000000E+00 -1.28294652E-16  0.00000000E+00 -1.17284786E-02  0.00000000E+00
  0.00000000E+00  7.21999701E-17  0.00000000E+00  2.29356036E-03  0.00000000E+00
  0.00000000E+00  6.79791021E-17  0.00000000E+00  0.00000000E+00  0.00000000E+00
  2.29114840E-02 -5.23471484E-02 -2.05903006E-02 -1.31412956E-01  0.00000000E+00
  0.00000000E+00  2.50682766E-01  0.00000000E+00  0.00000000E+00  3.06827504E-01
  0.00000000E+00  0.00000000E+00  1.91963355E-01  2.14334133E-03  0.00000000E+00
  0.00000000E+00 -1.74527966E-16  0.00000000E+00  1.32412923E-02  0.00000000E+00
  0.00000000E+00  1.89351000E-16  0.00000000E+00  2.52999531E-03  0.00000000E+00
  0.00000000E+00  1.40340191E-17  0.00000000E+00  0.00000000E+00  0.00000000E+00
 -1.45588446E-01  2.19782214E-01  1.12368460E-01 -8.61222382E-02  0.00000000E+00
  0.00000000E+00  0.00000000E+00  0.00000000E+00  0.00000000E+00  0.00000000E+00
  0.00000000E+00  0.00000000E+00  0.00000000E+00  8.48978516E-02  0.00000000E+00
  0.00000000E+00 -7.13257873E-17  0.00000000E+00 -7.25534498E-03  0.00000000E+00
  0.00000000E+00 -3.16803131E-16  0.00000000E+00  0.00000000E+00  0.00000000E+00
  0.00000000E+00  0.00000000E+00  0.00000000E+00  0.00000000E+00  0.00000000E+00
  2.29114840E-02 -5.23471484E-02 -2.05903006E-02 -1.31412956E-01  0.00000000E+00
  0.00000000E+00 -2.50682766E-01  0.00000000E+00  0.00000000E+00 -3.06827504E-01
  0.00000000E+00  0.00000000E+00 -1.91963355E-01  2.14334133E-03  0.00000000E+00
  0.00000000E+00 -1.74527966E-16  0.00000000E+00  1.32412923E-02  0.00000000E+00
  0.00000000E+00  1.89351000E-16  0.00000000E+00 -2.52999531E-03  0.00000000E+00
  0.00000000E+00 -1.40340191E-17  0.00000000E+00  0.00000000E+00  0.00000000E+00
  0.00000000E+00  0.00000000E+00  0.00000000E+00  0.00000000E+00  2.54235295E-01
  0.00000000E+00  0.00000000E+00  3.14563887E-01  0.00000000E+00  0.00000000E+00
  2.20702976E-01  0.00000000E+00  0.00000000E+00  0.00000000E+00  2.32297198E-03
  0.00000000E+00  0.00000000E+00  0.00000000E+00  0.00000000E+00  1.00306950E-02
  0.00000000E+00  0.00000000E+00  0.00000000E+00  0.00000000E+00  1.83447769E-03
  0.00000000E+00  0.00000000E+00  0.00000000E+00 -7.97868572E-17  0.00000000E+00
  0.00000000E+00  0.00000000E+00  0.00000000E+00  0.00000000E+00  8.51588758E-02
  0.00000000E+00  0.00000000E+00  8.35830654E-02  0.00000000E+00  0.00000000E+00
  2.31007214E-02  0.00000000E+00  0.00000000E+00  0.00000000E+00  0.00000000E+00
  0.00000000E+00  0.00000000E+00  0.00000000E+00  0.00000000E+00  0.00000000E+00
  0.00000000E+00  0.00000000E+00  0.00000000E+00  0.00000000E+00  2.93882099E-02
  0.00000000E+00  0.00000000E+00  0.00000000E+00 -2.55591750E-16  0.00000000E+00
  0.00000000E+00  0.00000000E+00  0.00000000E+00  0.00000000E+00  2.54235295E-01
  0.00000000E+00  0.00000000E+00  3.14563887E-01  0.00000000E+00  0.00000000E+00
  2.20702976E-01  0.00000000E+00  0.00000000E+00  0.00000000E+00 -2.32297198E-03
  0.00000000E+00  0.00000000E+00  0.00000000E+00  0.00000000E+00 -1.00306950E-02
  0.00000000E+00  0.00000000E+00  0.00000000E+00  0.00000000E+00  1.83447769E-03
  0.00000000E+00  0.00000000E+00  0.00000000E+00 -7.97868572E-17  0.00000000E+00
  0.00000000E+00  0.00000000E+00  0.00000000E+00  0.00000000E+00  0.00000000E+00
  2.54235295E-01  0.00000000E+00  0.00000000E+00  3.14563887E-01  0.00000000E+00
  0.00000000E+00  2.20702976E-01  0.00000000E+00  0.00000000E+00  0.00000000E+00
  2.32297198E-03  0.00000000E+00  0.00000000E+00  0.00000000E+00  0.00000000E+00
  1.00306950E-02  0.00000000E+00  0.00000000E+00  0.00000000E+00  0.00000000E+00
  1.83447769E-03  0.00000000E+00  0.00000000E+00  0.00000000E+00  2.98087591E-16
  0.00000000E+00  0.00000000E+00  0.00000000E+00  0.00000000E+00  0.00000000E+00
  8.51588758E-02  0.00000000E+00  0.00000000E+00  8.35830654E-02  0.00000000E+00
  0.00000000E+00  2.31007214E-02  0.00000000E+00  0.00000000E+00  0.00000000E+00
  0.00000000E+00  0.00000000E+00  0.00000000E+00  0.00000000E+00  0.00000000E+00
  0.00000000E+00  0.00000000E+00  0.00000000E+00  0.00000000E+00  0.00000000E+00
  2.93882099E-02  0.00000000E+00  0.00000000E+00  0.00000000E+00  2.32163071E-16
  0.00000000E+00  0.00000000E+00  0.00000000E+00  0.00000000E+00  0.00000000E+00
  2.54235295E-01  0.00000000E+00  0.00000000E+00  3.14563887E-01  0.00000000E+00
  0.00000000E+00  2.20702976E-01  0.00000000E+00  0.00000000E+00  0.00000000E+00
 -2.32297198E-03  0.00000000E+00  0.00000000E+00  0.00000000E+00  0.00000000E+00
 -1.00306950E-02  0.00000000E+00  0.00000000E+00  0.00000000E+00  0.00000000E+00
  1.83447769E-03  0.00000000E+00  0.00000000E+00  0.00000000E+00  2.98087591E-16
  0.00000000E+00  0.00000000E+00  0.00000000E+00  0.00000000E+00  0.00000000E+00
  2.63707754E-01  0.00000000E+00  0.00000000E+00  3.25868948E-01  0.00000000E+00
  0.00000000E+00  2.46970564E-01  0.00000000E+00  0.00000000E+00  0.00000000E+00
  1.79122206E-03  0.00000000E+00  0.00000000E+00  0.00000000E+00  0.00000000E+00
  1.13338021E-02  0.00000000E+00  0.00000000E+00  0.00000000E+00  0.00000000E+00
  1.76778775E-03  0.00000000E+00  0.00000000E+00  0.00000000E+00  2.47493470E-16
  0.00000000E+00  0.00000000E+00  0.00000000E+00  0.00000000E+00  0.00000000E+00
  0.00000000E+00  0.00000000E+00  0.00000000E+00  0.00000000E+00  0.00000000E+00